LAMMPS (7 Feb 2024 - Development - e51a656)
OMP_NUM_THREADS environment is not set. Defaulting to 1 thread. (src/comm.cpp:98)
  using 1 OpenMP thread(s) per MPI task
Reading data file ...
  triclinic box = (0 0 0) to (22.326 11.1412 13.778966) with tilt (0 -5.02603 0)
  8 by 4 by 4 MPI processor grid
  reading atoms ...
  304 atoms
  reading velocities ...
  304 velocities
  read_data CPU = 0.052 seconds
Replication is creating a 16x16x8 = 2048 times larger system...
  triclinic box = (0 0 0) to (357.216 178.2592 110.23173) with tilt (0 -40.20824 0)
  8 by 4 by 4 MPI processor grid
  bounding box image = (0 -1 -1) to (0 1 1)
  bounding box extra memory = 0.03 MB
  average # of replicas added to proc = 53.12 out of 2048 (2.59%)
  622592 atoms
  replicate CPU = 0.004 seconds
Neighbor list info ...
  update: every = 20 steps, delay = 0 steps, check = no
  max neighbors/atom: 2000, page size: 100000
  master list distance cutoff = 11
  ghost atom cutoff = 11
  binsize = 5.5, bins = 73 33 21
  2 neighbor lists, perpetual/occasional/extra = 2 0 0
  (1) pair reaxff, perpetual
      attributes: half, newton off, ghost
      pair build: half/bin/ghost/newtoff
      stencil: full/ghost/bin/3d
      bin: standard
  (2) fix qeq/reax, perpetual, copy from (1)
      attributes: half, newton off
      pair build: copy
      stencil: none
      bin: none
Setting up Verlet run ...
  Unit style    : real
  Current step  : 0
  Time step     : 0.1
Per MPI rank memory allocation (min/avg/max) = 331 | 331 | 331 Mbytes
   Step          Temp          PotEng         Press          E_vdwl         E_coul         Volume    
         0   300           -113.27833      439.01454     -111.57687     -1.7014647      7019230      
        10   301.00116     -113.28114      938.94774     -111.57972     -1.7014216      7019230      
        20   302.62976     -113.28586      1876.7054     -111.58456     -1.7012993      7019230      
        30   302.57577     -113.28557      4515.6443     -111.5845      -1.7010626      7019230      
        40   300.54171     -113.27942      6582.2646     -111.57869     -1.7007292      7019230      
        50   297.47686     -113.27025      6599.9975     -111.56989     -1.7003579      7019230      
        60   294.98337     -113.26278      6294.9483     -111.5628      -1.6999846      7019230      
        70   294.98778     -113.26275      6970.6363     -111.56314     -1.6996085      7019230      
        80   298.00108     -113.27171      8403.2885     -111.57247     -1.6992334      7019230      
        90   301.69582     -113.28273      9528.4034     -111.58383     -1.6989         7019230      
       100   302.4576      -113.28495      10433.729     -111.58629     -1.6986607      7019230      
Loop time of 43.9589 on 128 procs for 100 steps with 622592 atoms

Performance: 0.020 ns/day, 1221.080 hours/ns, 2.275 timesteps/s, 1.416 Matom-step/s
99.7% CPU use with 128 MPI tasks x 1 OpenMP threads

MPI task timing breakdown:
Section |  min time  |  avg time  |  max time  |%varavg| %total
---------------------------------------------------------------
Pair    | 21.362     | 24.173     | 26.919     |  24.3 | 54.99
Neigh   | 0.42049    | 0.425      | 0.43152    |   0.4 |  0.97
Comm    | 0.080267   | 2.6227     | 5.627      |  75.1 |  5.97
Output  | 0.0063926  | 0.04519    | 0.06905    |  12.2 |  0.10
Modify  | 16.521     | 16.691     | 16.968     |   5.1 | 37.97
Other   |            | 0.001955   |            |       |  0.00

Nlocal:           4864 ave        4876 max        4854 min
Histogram: 5 12 13 13 22 34 16 7 5 1
Nghost:        14884.3 ave       14906 max       14858 min
Histogram: 1 3 12 13 22 28 18 18 8 5
Neighs:    1.56183e+06 ave 1.56564e+06 max 1.55873e+06 min
Histogram: 4 13 18 13 28 21 19 7 4 1

Total # of neighbors = 1.9991388e+08
Ave neighs/atom = 321.09934
Neighbor list builds = 5
Dangerous builds not checked
Total wall time: 0:00:45
