LAMMPS (7 Feb 2024 - Development - e51a656)
OMP_NUM_THREADS environment is not set. Defaulting to 1 thread. (src/comm.cpp:98)
  using 1 OpenMP thread(s) per MPI task
Reading data file ...
  triclinic box = (0 0 0) to (22.326 11.1412 13.778966) with tilt (0 -5.02603 0)
  8 by 8 by 8 MPI processor grid
  reading atoms ...
  304 atoms
  reading velocities ...
  304 velocities
  read_data CPU = 0.025 seconds
Replication is creating a 16x16x8 = 2048 times larger system...
  triclinic box = (0 0 0) to (357.216 178.2592 110.23173) with tilt (0 -40.20824 0)
  16 by 8 by 4 MPI processor grid
  bounding box image = (0 -1 -1) to (0 1 1)
  bounding box extra memory = 0.03 MB
  average # of replicas added to proc = 17.53 out of 2048 (0.86%)
  622592 atoms
  replicate CPU = 0.009 seconds
Neighbor list info ...
  update: every = 20 steps, delay = 0 steps, check = no
  max neighbors/atom: 2000, page size: 100000
  master list distance cutoff = 11
  ghost atom cutoff = 11
  binsize = 5.5, bins = 73 33 21
  2 neighbor lists, perpetual/occasional/extra = 2 0 0
  (1) pair reaxff, perpetual
      attributes: half, newton off, ghost
      pair build: half/bin/ghost/newtoff
      stencil: full/ghost/bin/3d
      bin: standard
  (2) fix qeq/reax, perpetual, copy from (1)
      attributes: half, newton off
      pair build: copy
      stencil: none
      bin: none
Setting up Verlet run ...
  Unit style    : real
  Current step  : 0
  Time step     : 0.1
Per MPI rank memory allocation (min/avg/max) = 143.9 | 143.9 | 143.9 Mbytes
   Step          Temp          PotEng         Press          E_vdwl         E_coul         Volume    
         0   300           -113.27833      439.01455     -111.57687     -1.7014647      7019230      
        10   301.00116     -113.28114      938.94778     -111.57972     -1.7014216      7019230      
        20   302.62976     -113.28586      1876.7175     -111.58456     -1.7012993      7019230      
        30   302.57577     -113.28557      4515.7133     -111.5845      -1.7010624      7019230      
        40   300.5417      -113.27942      6582.2446     -111.57869     -1.7007293      7019230      
        50   297.47685     -113.27025      6599.9774     -111.56989     -1.700358       7019230      
        60   294.98337     -113.26278      6294.9309     -111.5628      -1.6999847      7019230      
        70   294.98778     -113.26275      6970.6558     -111.56314     -1.6996085      7019230      
        80   298.00108     -113.27171      8403.3108     -111.57247     -1.6992334      7019230      
        90   301.69581     -113.28273      9528.4144     -111.58383     -1.6989         7019230      
       100   302.45758     -113.28495      10433.763     -111.58629     -1.6986606      7019230      
Loop time of 16.1269 on 512 procs for 100 steps with 622592 atoms

Performance: 0.054 ns/day, 447.970 hours/ns, 6.201 timesteps/s, 3.861 Matom-step/s
99.3% CPU use with 512 MPI tasks x 1 OpenMP threads

MPI task timing breakdown:
Section |  min time  |  avg time  |  max time  |%varavg| %total
---------------------------------------------------------------
Pair    | 6.4473     | 7.5101     | 8.5175     |  12.4 | 46.57
Neigh   | 0.16856    | 0.17108    | 0.18493    |   0.3 |  1.06
Comm    | 0.16675    | 1.0079     | 2.3243     |  35.8 |  6.25
Output  | 0.031701   | 0.066715   | 0.10094    |   7.6 |  0.41
Modify  | 7.1482     | 7.3705     | 7.5003     |   4.1 | 45.70
Other   |            | 0.0007171  |            |       |  0.00

Nlocal:           1216 ave        1225 max        1208 min
Histogram: 3 14 67 70 144 132 36 35 7 4
Nghost:        7591.97 ave        7609 max        7574 min
Histogram: 7 13 39 66 116 99 100 40 24 8
Neighs:         432964 ave      436294 max      429953 min
Histogram: 2 10 46 100 133 129 59 23 9 1

Total # of neighbors = 2.2167746e+08
Ave neighs/atom = 356.05574
Neighbor list builds = 5
Dangerous builds not checked
Total wall time: 0:00:16
